90
 energy: -138.072103213860 gnorm: 0.000888652206 xtb: 6.3.3 (5b13467)
C        -4.04580111318596   -0.19627059860828    1.46787969083849
C        -3.06545173567614    0.76832760966636    1.43429125156426
C        -1.76437753784250    0.29151819057079    1.63005038350846
C        -3.53413212284817   -1.47769668273067    1.70556780294107
S        -1.80409848493908   -1.45652084066396    1.85350979666038
C        -0.61216840811862    1.06503047091038    1.69068477838367
C         0.69393501924047    0.63314993678685    1.79482622036099
H        -0.78285907079223    2.13117926650947    1.63534189990541
C         1.89621630987652    1.38800978128608    1.94100908853402
H        -3.26771719329107    1.81227146017299    1.26937085967763
H        -5.09142940496247   -0.00093687851721    1.32079033580810
N         3.00239974493876    0.68856314366054    1.89439764741298
C         2.81766122301214   -0.61554904266377    1.75086072186547
S         1.11174245177760   -1.07526912876508    1.68701096747728
C         3.84343776801384   -1.53590056950122    1.64344932119489
C         3.60245235379387   -2.90275428961663    1.49477376443488
N         3.42714378759614   -4.02996154021031    1.33912738143606
C         5.18181847699285   -1.12962503674225    1.59117663047227
N         6.29034679787992   -0.84160615383610    1.48213315686774
N        -4.20414870274066   -2.61406027027200    1.84541870838413
C        -5.64095240785402   -2.74694403457937    1.70001940129371
C        -3.56094227228785   -3.87992178015022    2.13360572023135
C         2.01873908518334    2.86678630826070    2.22245445935157
C        -5.84116197796142   -4.25415048829604    1.57159800696282
H        -6.00187905336484   -2.19698691102609    0.82910806644293
H        -6.13940828437628   -2.35459544555191    2.59544106481830
C        -4.72263659004721   -4.81755923900042    2.44564082196451
H        -5.68706259401143   -4.55824240830808    0.53645357807843
H        -6.83199101886500   -4.56701941593734    1.89104656016397
H        -4.48629366202870   -5.85087893993526    2.20749920822417
H        -4.99476567288666   -4.75025899859549    3.50010824793628
H        -2.85639839051324   -3.76695671849176    2.96272322626957
H        -3.00976216019487   -4.22078674527327    1.24879111104251
C         1.51293567102180    3.69997988232844    1.04012681947915
H         2.02433783954294    3.40231995577457    0.12725776079202
H         1.72130296635160    4.75208100059957    1.22151585663483
H         0.44357342361044    3.58834407900381    0.89438993146977
C         3.49692393929745    3.20271191121947    2.44993554670657
H         4.08341660868249    2.96215135868503    1.56810182361774
H         3.89540753220682    2.62737742087305    3.28026626371988
H         3.60560154127552    4.26202854729787    2.67059484430502
C         1.23892533644320    3.21309842466237    3.49839828114123
H         0.17545126241962    3.01891048063693    3.39240281166313
H         1.37578967998134    4.26625546049512    3.73334492698152
H         1.61071652195689    2.62452876908851    4.33420358162368
H        -1.96835184240517    3.33042319827703   -0.35387293013857
C        -1.49569545731295    3.56572663435575   -1.30490491471860
H         5.73301738887354   -4.61000525150224   -0.22666778453443
H        -0.41982006484735    3.48346120032388   -1.19131563896425
H        -1.72939850952846    4.59781457101346   -1.55694377575553
H         3.05551826113927   -4.32838260221640   -0.91183148386594
H        -4.07570702251150    2.78502295682968   -1.70350881764574
H         6.02382674228058   -2.27323027314067   -0.67677440917752
C         5.87203061151337   -4.37573840697742   -1.28189451493802
C        -5.16182518379040   -1.33340584564821   -1.53412552951048
N        -6.27478464579857   -1.04964557794329   -1.46796220006568
C        -3.51335765969500    2.95491452863746   -2.61705740096372
C         5.66223202000565   -2.88116881385100   -1.50827481672748
C        -3.81966513553256   -1.72937873806885   -1.53467283917150
C        -2.02897463835605    2.63874945081894   -2.40201166622126
S         1.81889077865139   -1.62177311111991   -1.72087624880655
C        -2.80039685318816   -0.80885480430314   -1.69296231527296
C        -1.89510789242825    1.18532419927355   -2.01390482822696
C        -3.56611261917867   -3.07880240624967   -1.28308114820806
S        -1.09209663464047   -1.24663491644702   -1.58109469151698
C         3.58316859588820   -4.05189109233831   -1.83285228848712
N        -2.99563281915742    0.48059826636280   -1.92750937721461
C        -0.68741579689972    0.45297375484089   -1.81067046595461
C         3.55046284889762   -1.62373942453585   -1.59512697701567
C         0.61641933607672    0.89931536493905   -1.74542191804789
C         1.77300357065246    0.13813408238872   -1.63546612325601
N         4.22412181934853   -2.76490515354401   -1.65459538678671
C         4.05882931258688   -0.32543569117571   -1.46612995025271
N        -3.37645762708298   -4.18789867995888   -1.03906284698170
C         3.07387003860592    0.63458346109328   -1.49404110571507
H         4.51916353908498   -6.01918457952820   -1.79231819460594
H        -3.63043363785718    3.99333549830666   -2.91824008779551
C         4.74517676217855   -5.00221832457797   -2.10058568591375
H         6.86024525305865   -4.70497400632682   -1.59289505977063
H         0.78185317345776    1.96724784549680   -1.77312733202732
H         5.10555076934297   -0.11551924530909   -1.35022895378823
H         3.27177567271362    1.68920964351791   -1.41356832394384
H         2.85919946148574   -4.00466374798213   -2.65134215292075
H        -3.93229436279702    2.31527467421995   -3.38802228178113
H         6.15456702713264   -2.54484215265682   -2.42937763178222
C        -1.28112409214115    2.88034321144756   -3.72058669176057
H        -1.41610326100426    3.91368845142670   -4.03204040187207
H         5.00119295769367   -5.00190873385701   -3.16125277981964
H        -0.21670312390474    2.68415450254968   -3.62569019031189
H        -1.67871771573171    2.23277553938249   -4.49887372240377
